file 79135430 1515949389                                        
version 2
run General-0-20180114-18:02:23-2368
attr configname General
attr datetime 20180114-18:02:23
attr experiment General
attr inifile jacksson.ini
attr iterationvars ""
attr iterationvarsf ""
attr measurement ""
attr network Jacksson
attr processid 2368
attr repetition 0
attr replication #0
attr resultdir results
attr runnumber 0
attr seedset 0

vector 0 Jacksson.ReceptorTransporte4 "" ETV
vector 1 Jacksson.ReceptorTransporte3 "" ETV
0	463 1359446 50 447894 2.5 8990.111413539668 32768 1.5 2433.1118991135 21820176.794572 35262527959.752
0	1359909 1400750 447905 892925 8990.22590110899 17915.111413539668 32768 1.5 4751.5287249362 64032998.939342 237356569609.19
1	2760659 1301683 151 1209951 4.574275693112 24276.663809212818 32768 1.5 9.89554861021 101313.81728794 385960.75728483
0	4062342 1427705 892950 1340648 17915.611413539668 26895.511737419133 32768 1.5 7129.1505674685 106770217.48331 642817711228.71
0	5490047 1435389 1340663 1789693 26895.611413539668 35919.111413539668 32768 1.5 9549.7040710977 150511903.44423 1263500080051.8
0	6925436 1437750 1789712 2235323 35919.611413539668 44861.71311993943 32768 1.5 12004.44441963 192815867.37549 2087068826777.9
1	8363186 1349585 1209975 2418201 24277.163809212818 48533.605564662128 32768 1.5 9.629017382482 102735.41020599 398223.30968068
0	9712771 1437311 2235338 2681437 44862.111413539668 53816.611413539668 32768 1.5 14409.474193305 236292575.37398 3125075284880.4
0	11150082 1439029 2681448 3127070 53817.031135262238 62761.111413539668 32768 1.5 16779.525594658 278794668.2727 4351953155519.1
0	12589111 1437128 3127076 3574874 62761.366528352788 71744.611413539668 32768 1.5 19173.823165799 323153596.09632 5819281718797.9
1	14026239 1344653 2418227 3636870 48534.105564662128 72993.862502807824 32768 1.5 12.089999226405 101935.51911008 395636.822052
0	15370892 1439527 3574880 4019526 71744.885310475608 80670.713043142186 32768 1.5 21527.942741509 363329463.92821 7401219780202.6
0	16810419 1439423 4019545 4464087 80671.111413539668 89600.611413539668 32768 1.5 23958.517288679 406523895.35031 9259908075413.8
1	18249842 1344191 3636896 4855254 72994.362502807824 97439.656437694438 32768 1.5 11.131119658971 101146.54885516 385381.25768947
0	19594033 1439256 4464110 4909021 89601.111413539668 98521.611413539668 32768 1.5 26345.437570373 448749876.94935 11293177859636
0	21033289 1463477 4909028 5356842 98521.690677590555 107512.99252725721 32768 1.5 28749.735141513 495489739.77219 13659600504547
0	22496766 1470810 5356853 5802372 107513.111413539668 116459.611413539668 32768 1.5 31148.921118396 535834185.7532 16051720858815
1	23967576 1374744 4855278 6066515 97440.156437694438 121748.481824745894 32768 1.5 10.5927282278 101577.72379205 390068.24219097
0	25342320 1469006 5802394 6250211 116460.111413539668 125442.297939737809 32768 1.5 33509.191503712 581008466.06099 18796362606920
0	26811326 1470388 6250230 6697504 125442.611413539668 134423.207740077814 32768 1.5 35872.276397719 622785859.98471 21599144784012
0	28281714 1470738 6697524 7145447 134423.611413539668 143397.08074279564 32768 1.5 38285.110917385 665275831.52682 24666804900929
1	29752452 1381060 6066538 7274847 121749.000393669172 145997.686594375464 32768 1.5 10.767797465425 103162.22080701 402892.39031643
0	31133512 1467767 7145451 7593923 143397.111413539668 152408.774082226092 32768 1.5 40722.259945742 712209835.96536 28148396443514
0	32601279 1472219 7593939 8040009 152409.111413539668 161357.611413539668 32768 1.5 43092.301584394 750013899.51335 31434188153128
0	34073498 1472498 8040027 8484806 161358.05839207219 170273.111413539668 32768 1.5 45468.007086678 789321442.78416 34945311658529
1	35545996 1380662 7274893 8486835 145998.686594375464 170312.980058653872 32768 1.5 11.840953311096 101946.17368195 392777.74648053
0	36926658 1470252 8484823 8931173 170273.611413539668 179226.111413539668 32768 1.5 47891.40784297 835944892.32533 39030910384620
0	38396910 1469950 8931183 9378138 179226.282363774231 188189.018027583682 32768 1.5 50301.976667447 880431743.95262 43249253496635
1	39866860 1381359 8486896 9695474 170314.149885116873 194560.512732544338 32768 1.5 11.200427997555 102453.98168527 396755.18964652
0	41248219 1470494 9378148 9826246 188189.111413539668 197177.111413539668 32768 1.5 52668.581086855 925306498.57738 47631207203497
0	42718713 1491472 9826257 10271471 197177.250419010442 206109.055081636114 32768 1.5 55097.048079775 962346848.65428 51849612511044
0	44210185 1503282 10271475 10717943 206109.111413539668 215057.987576702862 32768 1.5 57475.206870833 1007647316.071 56733758142368
1	45713467 1404668 9695501 10898289 194561.012732544338 218664.132261142262 32768 1.5 9.766518732835 100871.20823488 381795.12799324
0	47118135 1502046 10717948 11165189 215058.111413539668 224009.02346357723 32768 1.5 59857.394949992 1050177443.7587 61609681210467
0	48620181 1502099 11165205 11611851 224009.111413539668 232977.065234012886 32768 1.5 62186.255301888 1094861176.2846 66836379054326
0	50122280 1504225 11611855 12057570 232977.111413539668 241920.985077970054 32768 1.5 64546.699313536 1133666570.3269 71850069622180
1	51626505 1411514 10898385 12115154 218666.171311944106 243085.24608782324 32768 1.5 11.000786768753 102071.50391578 394473.92884995
0	53038019 1503553 12057577 12502499 241921.111413539668 250877.007452149138 32768 1.5 66939.452186631 1177681919.7999 77433543925472
0	54541572 1505307 12502506 12946971 250877.111413539668 259795.111413539668 32768 1.5 69313.710047384 1215072547.5367 82774639234833
1	56046879 1411412 12115176 13332667 243085.74608782324 267523.280433884806 32768 1.5 10.617376170666 101405.67797568 387446.49365931
0	57458291 1503594 12946994 13393072 259795.611413539668 268735.093039324909 32768 1.5 71682.810262239 1260809102.2652 88913468481209
0	58961885 1502934 13393076 13839817 268735.111413539668 277694.611413539668 32768 1.5 74070.566680301 1305928989.0725 95172469273545
0	60464819 1503688 13839834 14286076 277694.899144314076 286664.590623310684 32768 1.5 76377.458422575 1349627849.6123 1.0154014618623e+014
1	61968507 1410125 13332695 14548775 267523.780433884806 291937.359256463442 32768 1.5 11.068338903227 101716.35591505 391555.57564555
0	63378632 1504250 14286080 14731183 286664.611413539668 295600.73578555396 32768 1.5 78772.556535154 1386557189.7804 1.0756906750266e+014
0	64882882 1503236 14731195 15178423 295601.111413539668 304582.111413539668 32768 1.5 81081.427949653 1435533010.3673 1.1472362034894e+014
0	66386118 1503574 15178426 15624923 304582.125242747714 313538.611413539668 32768 1.5 83475.655881988 1473835852.0409 1.2126506860071e+014
1	67889692 1412786 14548801 15761984 291937.961876208246 316283.390565408258 32768 1.5 11.271977008358 102319.64805441 396277.1032374
0	69302478 1504289 15624936 16070015 313538.99191991075 322468.611413539668 32768 1.5 85880.115214484 1512464568.4786 1.2808390022791e+014
0	70806767 1502114 16070018 16517978 322468.630481416614 331471.111413539668 32768 1.5 88317.018073053 1567994123.2145 1.3655317269817e+014
0	72308881 1499217 16517986 16966717 331471.145524045624 340480.527163302822 32768 1.5 90757.608525207 1613101861.8005 1.4441835820948e+014
1	73808098 1413779 15762012 16978743 316283.919254276438 340721.709614752426 32768 1.5 12.668068184326 102423.8115107 396845.1707522
0	75221877 1500001 16966721 17415780 340480.611413539668 349496.287910660678 32768 1.5 93179.327994744 1658636900.5174 1.5256781965386e+014
0	76721878 1411784 17415795 17836284 349496.611413539668 357940.38012869115 30800 1.5 95392.978981609 1592173689.7071 1.5010735486355e+014
1	78133662 1001766 16978773 17836265 340722.223022224563 357940.032172329998 23227 1.5 10.55383266222 72775.052229586 282677.38963165

