                                                                
version 2
run General-0-20180116-00:42:40-6336
attr configname General
attr datetime 20180116-00:42:40
attr experiment General
attr inifile jacksson.ini
attr iterationvars ""
attr iterationvarsf ""
attr measurement ""
attr network Jacksson
attr processid 6336
attr repetition 0
attr replication #0
attr resultdir results
attr runnumber 0
attr seedset 0

vector 0 Jacksson.ReceptorTransporte4 "" ETV
0	417 36 18 18 0.782613527575 0.782613527575 1 0.333333333333 0.333333333333 0.333333333333 0.11111111111089
vector 1 Jacksson.ReceptorTransporte3 "" ETV
0	499 1388185 32 397965 0.961298712357 7170.064603918949 32768 0.333333333333 8.718009608547 45378.823568774 110225.88629631
0	1388684 1421989 397969 794066 7170.115946860875 14310.794632045681 32768 0.333333333333 7.218009608582 40428.655824817 82811.038345382
0	2810673 1450716 794080 1189339 14310.961298712357 21440.615946860841 32768 0.333333333333 7.55134294185 45825.680837699 115169.6217953
1	4261389 1423610 87 1284590 2.127965379023 23157.282613527575 32768 0.333333333333 2.884676275289 22591.754009611 19827.417635505
0	5684999 1467795 1189349 1586050 21440.794632045689 28589.78261352745 32768 0.333333333333 9.718009608503 44482.131501481 106273.67782586
0	7152794 1467768 1586065 1984195 28590.115946860783 35762.115946860908 32768 0.333333333333 11.051342941778 48087.463810514 140798.85363697
0	8620562 1467745 1984214 2380549 35762.449280194241 42907.961298712357 32768 0.333333333333 8.884676275229 43814.79527287 102503.54357431
0	10088307 83362 2380565 2402813 42908.28261352755 43310.627965379023 1861 0.333333333333 6.71800960857 2697.4534662193 6985.0959466817
1	10171669 1281399 1284605 2402779 23157.615946860908 43310.127965379023 28609 0.333333333333 2.396694793403 19615.240897255 17116.082125863
